###############################################################################
# Jones, G.O.;Thomas, P.A. (2002)
# Acta Crystallographica B (39,1983-) 58, 168-178
# Investigation of the structure and phase transitions in the novel A-site \
# substituted distorted perovskite compound Na0.5 Bi0.5 Ti O3
# 
# CIF by ICSD-for-WWW,  Copyright 2003 FIZ-Karlsruhe & A.W.Hewat (hewat@ill.fr)
# NOT TO BE PUBLISHED IN ANY FORM. See http://icsd.ill.fr/icsd/conditions.html
###############################################################################

data_280983-ICSD
_database_code_ICSD                280983
_audit_creation_date               2003-04-01
_chemical_name_systematic
'Sodium bismuth titanate (0.5/0.5/1)'
_chemical_formula_structural       
'(Na0.5 Bi0.5) (Ti O3)'
_chemical_formula_sum              
'Bi0.5 Na0.5 O3 Ti1'
_publ_section_title                
'Bi0.5 Na0.5 O3 Ti1'
loop_
_citation_id
_citation_journal_abbrev
_citation_year
_citation_journal_volume
_citation_page_first
_citation_page_last
_citation_journal_id_ASTM
primary 'Acta Crystallographica B (39,1983-)' 2002 58 168 178 ASBSDK
loop_
_publ_author_name
Jones, G.O.;Thomas, P.A.
_cell_length_a                     5.4887(2)
_cell_length_b                     5.4887(2)
_cell_length_c                     13.5048(8)
_cell_angle_alpha                  90.
_cell_angle_beta                   90.
_cell_angle_gamma                  120.
_cell_volume                       352.3403
_cell_formula_units_Z              6
_symmetry_space_group_name_H-M     'R 3 c'
_symmetry_Int_Tables_number        161
_refine_ls_R_factor_all            0.0596
loop_
_symmetry_equiv_pos_site_id
_symmetry_equiv_pos_as_xyz
 1 'x,y,z'
 2 '1/3+x,2/3+y,2/3+z'
 3 '2/3+x,1/3+y,1/3+z'
 4 '-y,x-y,z'
 5 '1/3-y,2/3+x-y,2/3+z'
 6 '2/3-y,1/3+x-y,1/3+z'
 7 'x,x-y,1/2+z'
 8 '1/3+x,2/3+x-y,1/6+z'
 9 '2/3+x,1/3+x-y,5/6+z'
 10 '-y,-x,1/2+z'
 11 '1/3-y,2/3-x,1/6+z'
 12 '2/3-y,1/3-x,5/6+z'
 13 '-x+y,-x,z'
 14 '1/3-x+y,2/3-x,2/3+z'
 15 '2/3-x+y,1/3-x,1/3+z'
 16 '-x+y,y,1/2+z'
 17 '1/3-x+y,2/3+y,1/6+z'
 18 '2/3-x+y,1/3+y,5/6+z'
loop_
_atom_type_symbol
_atom_type_oxidation_number
Na1+     1.
Bi3+     3.
Ti4+     4.
O2-     -2.
 loop_
_atom_site_label
_atom_site_type_symbol
_atom_site_symmetry_multiplicity
_atom_site_Wyckoff_symbol
_atom_site_fract_x
_atom_site_fract_y
_atom_site_fract_z
_atom_site_B_iso_or_equiv
_atom_site_occupancy
Na1 Na1+ 6 a 0 0 0.2627(6) 0.0 0.5
Bi1 Bi3+ 6 a 0 0 0.2627(6) 0.0 0.5
Ti1 Ti4+ 6 a 0 0 0.0063(6) 0.0 1.
O4 O2- 18 b 0.126(1) 0.336(1) 0.0833 0.0 1.
loop_
_atom_site_aniso_label
_atom_site_aniso_type_symbol
_atom_site_aniso_U_11
_atom_site_aniso_U_22
_atom_site_aniso_U_33
_atom_site_aniso_U_12
_atom_site_aniso_U_13
_atom_site_aniso_U_23
Na1 Na1+ 0.022(3) 0.022(3) 0.036(9) 0.011(2) 0 0
Bi1 Bi3+ 0.036(2) 0.036(2) 0.091(6) 0.018(1) 0 0
Ti1 Ti4+ 0.011(2) 0.011(2) 0.009(3) 0.006(1) 0 0
O4 O2- 0.031(3) 0.006(1) 0.048(1) 0.014(3) -0.004(3) -0.011(1)
#End of data_280983-ICSD

